# vtk DataFile Version 2.0
Generated by Peano output component $Revision: 1.1 $ Author: Tobias Weinzierl
ASCII

DATASET UNSTRUCTURED_GRID
POINTS 9 float

0  0  0
0.1  0.2  0
0  0  0
0  0  0
0  0  0
1.3  0.2  0
0.1  1.7  0
0  0  0
1.3  1.7  0

CELLS 4 20

4 0 0 0 0
4 0 0 0 0
4 0 0 0 0
4 1 5 6 8


CELL_TYPES 4

8
8
8
8


POINT_DATA 9
SCALARS firstscalardata float 1
LOOKUP_TABLE default

0.0
-0.001
0.0
0.0
0.0
-0.002
-0.003
0.0
-0.004



SCALARS secondscalardata float 1
LOOKUP_TABLE default

0.0
-0.001
0.0
0.0
0.0
-0.002
-0.003
0.0
-0.004
