# vtk DataFile Version 2.0
Generated by Peano output component $Revision: 1.1 $ Author: Tobias Weinzierl
ASCII

DATASET UNSTRUCTURED_GRID
POINTS 8 float
0.1  0.2  0.3
1.3  0.2  0.3
0.1  1.7  0.3
1.3  1.7  0.3
0.1  0.2  2.0
1.3  0.2  2.0
0.1  1.7  2.0
1.3  1.7  2.0

CELLS 1 9
8 0 1 2 3 4 5 6 7

CELL_TYPES 1
11

POINT_DATA 8
SCALARS myscalars float
LOOKUP_TABLE default
3.0 4.0 5.0 6.0 7.0 8.0 9.0 10.0
